[Molden Format]
[Title]
Written by TeraChem
[Atoms] Angs
B   1   5     -0.41834   -1.25500   -0.79483
B   2   5     -0.41834   -1.25500   -0.04183
B   3   5     -1.25500   -0.41834   -1.29683
B   4   5     -1.25500   -0.41834    0.46017
B   5   5     -1.25500   -0.41834    1.21317
N   6   7     -2.09167    0.41833   -1.04583
B   7   5     -0.41834    1.25500   -0.79483
B   8   5     -0.41834    1.25500   -0.04183
N   9   7     -2.09167    0.41833    0.20917
N   10   7     -2.09167    0.41833    1.46417
N   11   7      0.41833   -2.09167   -1.04583
B   12   5      1.25500   -0.41834   -1.29683
N   13   7      0.41833   -2.09167    0.20917
N   14   7      0.41833   -2.09167    1.46417
B   15   5      1.25500   -0.41834    0.46017
B   16   5      1.25500   -0.41834    1.21317
N   17   7      0.41833    0.41833   -2.30083
N   18   7      0.41833    0.41833   -1.04583
N   19   7      0.41833    0.41833    0.20917
N   20   7      0.41833    0.41833    1.46417
[GTO]
    1 0
 s    7 1.00
         2788.000000             0.001288
          419.000000             0.009835
           96.470000             0.047648
           28.070000             0.160069
            9.376000             0.362894
            3.406000             0.433582
            1.306000             0.140082
 s    2 1.00
            3.406000            -0.179330
            0.324500             1.062594
 s    1 1.00
            0.102200             1.000000
 p    4 1.00
           11.340000             0.017988
            2.436000             0.110343
            0.683600             0.383072
            0.213400             0.647895
 p    1 1.00
            0.070110             1.000000

    2 0
 s    7 1.00
         2788.000000             0.001288
          419.000000             0.009835
           96.470000             0.047648
           28.070000             0.160069
            9.376000             0.362894
            3.406000             0.433582
            1.306000             0.140082
 s    2 1.00
            3.406000            -0.179330
            0.324500             1.062594
 s    1 1.00
            0.102200             1.000000
 p    4 1.00
           11.340000             0.017988
            2.436000             0.110343
            0.683600             0.383072
            0.213400             0.647895
 p    1 1.00
            0.070110             1.000000

    3 0
 s    7 1.00
         2788.000000             0.001288
          419.000000             0.009835
           96.470000             0.047648
           28.070000             0.160069
            9.376000             0.362894
            3.406000             0.433582
            1.306000             0.140082
 s    2 1.00
            3.406000            -0.179330
            0.324500             1.062594
 s    1 1.00
            0.102200             1.000000
 p    4 1.00
           11.340000             0.017988
            2.436000             0.110343
            0.683600             0.383072
            0.213400             0.647895
 p    1 1.00
            0.070110             1.000000

    4 0
 s    7 1.00
         2788.000000             0.001288
          419.000000             0.009835
           96.470000             0.047648
           28.070000             0.160069
            9.376000             0.362894
            3.406000             0.433582
            1.306000             0.140082
 s    2 1.00
            3.406000            -0.179330
            0.324500             1.062594
 s    1 1.00
            0.102200             1.000000
 p    4 1.00
           11.340000             0.017988
            2.436000             0.110343
            0.683600             0.383072
            0.213400             0.647895
 p    1 1.00
            0.070110             1.000000

    5 0
 s    7 1.00
         2788.000000             0.001288
          419.000000             0.009835
           96.470000             0.047648
           28.070000             0.160069
            9.376000             0.362894
            3.406000             0.433582
            1.306000             0.140082
 s    2 1.00
            3.406000            -0.179330
            0.324500             1.062594
 s    1 1.00
            0.102200             1.000000
 p    4 1.00
           11.340000             0.017988
            2.436000             0.110343
            0.683600             0.383072
            0.213400             0.647895
 p    1 1.00
            0.070110             1.000000

    6 0
 s    7 1.00
         5909.000000             0.001190
          887.500000             0.009099
          204.700000             0.044145
           59.840000             0.150464
           20.000000             0.356741
            7.193000             0.446533
            2.686000             0.145603
 s    2 1.00
            7.193000            -0.160405
            0.700000             1.058215
 s    1 1.00
            0.213300             1.000000
 p    4 1.00
           26.790000             0.018254
            5.956000             0.116461
            1.707000             0.390178
            0.531400             0.637102
 p    1 1.00
            0.165400             1.000000

    7 0
 s    7 1.00
         2788.000000             0.001288
          419.000000             0.009835
           96.470000             0.047648
           28.070000             0.160069
            9.376000             0.362894
            3.406000             0.433582
            1.306000             0.140082
 s    2 1.00
            3.406000            -0.179330
            0.324500             1.062594
 s    1 1.00
            0.102200             1.000000
 p    4 1.00
           11.340000             0.017988
            2.436000             0.110343
            0.683600             0.383072
            0.213400             0.647895
 p    1 1.00
            0.070110             1.000000

    8 0
 s    7 1.00
         2788.000000             0.001288
          419.000000             0.009835
           96.470000             0.047648
           28.070000             0.160069
            9.376000             0.362894
            3.406000             0.433582
            1.306000             0.140082
 s    2 1.00
            3.406000            -0.179330
            0.324500             1.062594
 s    1 1.00
            0.102200             1.000000
 p    4 1.00
           11.340000             0.017988
            2.436000             0.110343
            0.683600             0.383072
            0.213400             0.647895
 p    1 1.00
            0.070110             1.000000

    9 0
 s    7 1.00
         5909.000000             0.001190
          887.500000             0.009099
          204.700000             0.044145
           59.840000             0.150464
           20.000000             0.356741
            7.193000             0.446533
            2.686000             0.145603
 s    2 1.00
            7.193000            -0.160405
            0.700000             1.058215
 s    1 1.00
            0.213300             1.000000
 p    4 1.00
           26.790000             0.018254
            5.956000             0.116461
            1.707000             0.390178
            0.531400             0.637102
 p    1 1.00
            0.165400             1.000000

   10 0
 s    7 1.00
         5909.000000             0.001190
          887.500000             0.009099
          204.700000             0.044145
           59.840000             0.150464
           20.000000             0.356741
            7.193000             0.446533
            2.686000             0.145603
 s    2 1.00
            7.193000            -0.160405
            0.700000             1.058215
 s    1 1.00
            0.213300             1.000000
 p    4 1.00
           26.790000             0.018254
            5.956000             0.116461
            1.707000             0.390178
            0.531400             0.637102
 p    1 1.00
            0.165400             1.000000

   11 0
 s    7 1.00
         5909.000000             0.001190
          887.500000             0.009099
          204.700000             0.044145
           59.840000             0.150464
           20.000000             0.356741
            7.193000             0.446533
            2.686000             0.145603
 s    2 1.00
            7.193000            -0.160405
            0.700000             1.058215
 s    1 1.00
            0.213300             1.000000
 p    4 1.00
           26.790000             0.018254
            5.956000             0.116461
            1.707000             0.390178
            0.531400             0.637102
 p    1 1.00
            0.165400             1.000000

   12 0
 s    7 1.00
         2788.000000             0.001288
          419.000000             0.009835
           96.470000             0.047648
           28.070000             0.160069
            9.376000             0.362894
            3.406000             0.433582
            1.306000             0.140082
 s    2 1.00
            3.406000            -0.179330
            0.324500             1.062594
 s    1 1.00
            0.102200             1.000000
 p    4 1.00
           11.340000             0.017988
            2.436000             0.110343
            0.683600             0.383072
            0.213400             0.647895
 p    1 1.00
            0.070110             1.000000

   13 0
 s    7 1.00
         5909.000000             0.001190
          887.500000             0.009099
          204.700000             0.044145
           59.840000             0.150464
           20.000000             0.356741
            7.193000             0.446533
            2.686000             0.145603
 s    2 1.00
            7.193000            -0.160405
            0.700000             1.058215
 s    1 1.00
            0.213300             1.000000
 p    4 1.00
           26.790000             0.018254
            5.956000             0.116461
            1.707000             0.390178
            0.531400             0.637102
 p    1 1.00
            0.165400             1.000000

   14 0
 s    7 1.00
         5909.000000             0.001190
          887.500000             0.009099
          204.700000             0.044145
           59.840000             0.150464
           20.000000             0.356741
            7.193000             0.446533
            2.686000             0.145603
 s    2 1.00
            7.193000            -0.160405
            0.700000             1.058215
 s    1 1.00
            0.213300             1.000000
 p    4 1.00
           26.790000             0.018254
            5.956000             0.116461
            1.707000             0.390178
            0.531400             0.637102
 p    1 1.00
            0.165400             1.000000

   15 0
 s    7 1.00
         2788.000000             0.001288
          419.000000             0.009835
           96.470000             0.047648
           28.070000             0.160069
            9.376000             0.362894
            3.406000             0.433582
            1.306000             0.140082
 s    2 1.00
            3.406000            -0.179330
            0.324500             1.062594
 s    1 1.00
            0.102200             1.000000
 p    4 1.00
           11.340000             0.017988
            2.436000             0.110343
            0.683600             0.383072
            0.213400             0.647895
 p    1 1.00
            0.070110             1.000000

   16 0
 s    7 1.00
         2788.000000             0.001288
          419.000000             0.009835
           96.470000             0.047648
           28.070000             0.160069
            9.376000             0.362894
            3.406000             0.433582
            1.306000             0.140082
 s    2 1.00
            3.406000            -0.179330
            0.324500             1.062594
 s    1 1.00
            0.102200             1.000000
 p    4 1.00
           11.340000             0.017988
            2.436000             0.110343
            0.683600             0.383072
            0.213400             0.647895
 p    1 1.00
            0.070110             1.000000

   17 0
 s    7 1.00
         5909.000000             0.001190
          887.500000             0.009099
          204.700000             0.044145
           59.840000             0.150464
           20.000000             0.356741
            7.193000             0.446533
            2.686000             0.145603
 s    2 1.00
            7.193000            -0.160405
            0.700000             1.058215
 s    1 1.00
            0.213300             1.000000
 p    4 1.00
           26.790000             0.018254
            5.956000             0.116461
            1.707000             0.390178
            0.531400             0.637102
 p    1 1.00
            0.165400             1.000000

   18 0
 s    7 1.00
         5909.000000             0.001190
          887.500000             0.009099
          204.700000             0.044145
           59.840000             0.150464
           20.000000             0.356741
            7.193000             0.446533
            2.686000             0.145603
 s    2 1.00
            7.193000            -0.160405
            0.700000             1.058215
 s    1 1.00
            0.213300             1.000000
 p    4 1.00
           26.790000             0.018254
            5.956000             0.116461
            1.707000             0.390178
            0.531400             0.637102
 p    1 1.00
            0.165400             1.000000

   19 0
 s    7 1.00
         5909.000000             0.001190
          887.500000             0.009099
          204.700000             0.044145
           59.840000             0.150464
           20.000000             0.356741
            7.193000             0.446533
            2.686000             0.145603
 s    2 1.00
            7.193000            -0.160405
            0.700000             1.058215
 s    1 1.00
            0.213300             1.000000
 p    4 1.00
           26.790000             0.018254
            5.956000             0.116461
            1.707000             0.390178
            0.531400             0.637102
 p    1 1.00
            0.165400             1.000000

   20 0
 s    7 1.00
         5909.000000             0.001190
          887.500000             0.009099
          204.700000             0.044145
           59.840000             0.150464
           20.000000             0.356741
            7.193000             0.446533
            2.686000             0.145603
 s    2 1.00
            7.193000            -0.160405
            0.700000             1.058215
 s    1 1.00
            0.213300             1.000000
 p    4 1.00
           26.790000             0.018254
            5.956000             0.116461
            1.707000             0.390178
            0.531400             0.637102
 p    1 1.00
            0.165400             1.000000

[MO]
 Ene=   -15.7934
 Spin= Alpha
 Occup= 2.0
    1   -0.00000
    2    0.00000
    3   -0.00241
    4    0.00000
    5   -0.00000
    6   -0.00003
    7    0.00052
    8   -0.00098
    9   -0.00021
   10    0.00000
   11    0.00007
   12    0.00498
   13    0.00003
   14    0.00003
   15    0.00005
   16   -0.00185
   17    0.00065
   18    0.00134
   19   -0.00000
   20    0.00004
   21    0.00172
   22   -0.00006
   23    0.00005
   24    0.00001
   25    0.00039
   26    0.00015
   27   -0.00002
   28    0.00005
   29    0.00011
   30   -0.00522
   31   -0.00000
   32    0.00007
   33    0.00023
   34   -0.00109
   35    0.00313
   36   -0.00139
   37   -0.00007
   38   -0.00031
   39    0.00175
   40    0.00000
   41   -0.00004
   42    0.00023
   43    0.00027
   44   -0.00107
   45    0.00013
   46   -0.00284
   47   -0.00024
   48    0.00035
   49    0.00005
   50   -0.00007
   51   -0.00044
   52   -0.00048
   53    0.00040
   54    0.00081
   55   -0.00002
   56   -0.00004
   57    0.00028
   58   -0.00004
   59   -0.00003
   60    0.00002
   61    0.00020
   62   -0.00016
   63    0.00020
   64    0.00000
   65    0.00004
   66   -0.00113
   67    0.00008
   68    0.00005
   69   -0.00007
   70    0.00006
   71    0.00014
   72   -0.00015
   73   -0.99874
   74   -0.00421
   75    0.00002
   76   -0.00124
   77    0.00116
   78   -0.00083
   79    0.00138
   80   -0.00122
   81    0.00178
   82   -0.01624
   83   -0.00007
   84   -0.00105
   85    0.00004
   86   -0.00005
   87    0.00026
   88   -0.00013
   89    0.00008
   90    0.00019
   91   -0.00000
   92   -0.00002
   93    0.00007
   94    0.00000
   95   -0.00000
   96    0.00001
   97   -0.00004
   98    0.00008
   99   -0.00020
  100    0.00000
  101    0.00002
  102    0.00032
  103   -0.00002
  104   -0.00001
  105    0.00000
  106    0.00001
  107   -0.00005
  108    0.00012
  109    0.00000
  110    0.00005
  111   -0.00034
  112   -0.00000
  113   -0.00001
  114    0.00001
  115    0.00023
  116   -0.00016
  117   -0.00032
  118    0.00000
  119   -0.00000
  120    0.00017
  121   -0.00001
  122   -0.00000
  123   -0.00001
  124    0.00007
  125   -0.00000
  126   -0.00010
  127    0.00000
  128    0.00002
  129    0.00022
  130   -0.00003
  131   -0.00001
  132   -0.00001
  133   -0.00003
  134   -0.00035
  135    0.00003
  136   -0.00000
  137   -0.00000
  138   -0.00005
  139   -0.00000
  140   -0.00000
  141    0.00001
  142    0.00003
  143    0.00016
  144    0.00001
  145   -0.00002
  146    0.00001
  147   -0.00001
  148   -0.00000
  149   -0.00000
  150    0.00000
  151    0.00009
  152   -0.00001
  153    0.00000
  154    0.00002
  155    0.00001
  156    0.00013
  157   -0.00000
  158   -0.00000
  159    0.00001
  160   -0.00003
  161   -0.00005
  162    0.00015
  163    0.00002
  164    0.00008
  165   -0.00018
  166   -0.00002
  167   -0.00000
  168    0.00000
  169    0.00018
  170    0.00009
  171    0.00023
  172    0.00001
  173    0.00002
  174   -0.00002
  175   -0.00002
  176   -0.00001
  177   -0.00002
  178   -0.00003
  179    0.00003
  180    0.00007
 Ene=   -15.7608
 Spin= Alpha
 Occup= 2.0
    1    0.00003
    2    0.00020
    3    0.00429
    4   -0.00001
    5    0.00000
    6    0.00000
    7   -0.00023
    8    0.00189
    9    0.00179
   10   -0.00002
   11   -0.00024
   12   -0.00837
   13    0.00006
   14   -0.00010
   15   -0.00004
   16    0.00213
   17   -0.00155
   18   -0.00311
   19    0.00002
   20    0.00010
   21   -0.00460
   22    0.00001
   23   -0.00002
   24   -0.00017
   25    0.00052
   26   -0.00169
   27   -0.00083
   28    0.00024
   29    0.00134
   30    0.01049
   31   -0.00019
   32    0.00020
   33    0.00044
   34   -0.00180
   35   -0.00012
   36    0.00149
   37   -0.00019
   38   -0.00107
   39   -0.00332
   40    0.00033
   41   -0.00039
   42    0.00029
   43    0.00227
   44   -0.00165
   45    0.00018
   46   -0.00016
   47    0.00034
   48   -0.00496
   49   -0.00002
   50    0.00000
   51   -0.00016
   52    0.00084
   53   -0.00050
   54   -0.00320
   55   -0.00002
   56   -0.00023
   57   -0.00040
   58    0.00015
   59    0.00004
   60   -0.00019
   61   -0.00018
   62    0.00036
   63   -0.00040
   64    0.00001
   65    0.00020
   66    0.00174
   67   -0.00023
   68   -0.00013
   69    0.00007
   70   -0.00022
   71   -0.00037
   72    0.00044
   73   -0.01641
   74    0.00040
   75   -0.00183
   76   -0.00013
   77    0.00016
   78   -0.00008
   79   -0.00111
   80    0.00079
   81   -0.00910
   82    0.99900
   83    0.00176
   84    0.00874
   85    0.00163
   86   -0.00147
   87   -0.00344
   88   -0.00089
   89    0.00079
   90   -0.00083
   91   -0.00001
   92    0.00005
   93   -0.00057
   94    0.00002
   95   -0.00002
   96   -0.00003
   97    0.00012
   98   -0.00011
   99    0.00019
  100   -0.00000
  101   -0.00003
  102   -0.00066
  103    0.00002
  104    0.00004
  105   -0.00001
  106    0.00016
  107    0.00020
  108   -0.00010
  109   -0.00002
  110   -0.00011
  111    0.00051
  112    0.00003
  113   -0.00000
  114   -0.00001
  115   -0.00061
  116    0.00037
  117    0.00007
  118   -0.00001
  119   -0.00004
  120    0.00020
  121   -0.00001
  122    0.00001
  123    0.00004
  124    0.00011
  125   -0.00005
  126   -0.00019
  127    0.00001
  128    0.00003
  129   -0.00007
  130   -0.00002
  131    0.00002
  132    0.00000
  133   -0.00063
  134    0.00016
  135   -0.00001
  136   -0.00000
  137   -0.00001
  138   -0.00012
  139    0.00004
  140   -0.00001
  141    0.00001
  142    0.00052
  143    0.00002
  144   -0.00026
  145   -0.00001
  146   -0.00004
  147    0.00024
  148   -0.00000
  149   -0.00001
  150    0.00000
  151   -0.00019
  152    0.00001
  153    0.00008
  154    0.00007
  155    0.00002
  156    0.00001
  157   -0.00002
  158   -0.00002
  159    0.00001
  160    0.00007
  161    0.00009
  162    0.00004
  163   -0.00002
  164   -0.00006
  165   -0.00018
  166    0.00007
  167    0.00000
  168   -0.00002
  169   -0.00008
  170   -0.00007
  171    0.00010
  172   -0.00003
  173   -0.00004
  174    0.00001
  175   -0.00000
  176    0.00001
  177   -0.00001
  178   -0.00005
  179   -0.00011
  180    0.00006
 Ene=   -15.7481
 Spin= Alpha
 Occup= 2.0
    1   -0.00001
    2   -0.00010
    3   -0.00076
    4   -0.00007
    5   -0.00005
    6   -0.00006
    7    0.00060
    8   -0.00040
    9    0.00013
   10    0.00003
   11    0.00017
   12    0.00033
   13    0.00006
   14    0.00006
   15   -0.00004
   16   -0.00037
   17    0.00026
   18    0.00026
   19   -0.00000
   20   -0.00008
   21    0.00018
   22   -0.00013
   23   -0.00014
   24   -0.00001
   25    0.00011
   26   -0.00039
   27   -0.00008
   28    0.00000
   29    0.00007
   30    0.00013
   31    0.00004
   32    0.00003
   33   -0.00003
   34   -0.00005
   35    0.00019
   36   -0.00031
   37   -0.00000
   38   -0.00003
   39    0.00006
   40   -0.00002
   41   -0.00001
   42    0.00002
   43   -0.00008
   44    0.00002
   45    0.00007
   46    0.00006
   47    0.00003
   48   -0.00002
   49    0.00004
   50    0.00000
   51   -0.00001
   52    0.00002
   53    0.00003
   54   -0.00007
   55   -0.00002
   56   -0.00041
   57   -0.00102
   58   -0.00026
   59    0.00031
   60    0.00017
   61   -0.00022
   62   -0.00034
   63   -0.00049
   64    0.00000
   65   -0.00000
   66    0.00049
   67   -0.00001
   68   -0.00003
   69    0.00011
   70    0.00011
   71    0.00050
   72   -0.00015
   73   -0.00002
   74   -0.00002
   75    0.00010
   76    0.00000
   77    0.00001
   78   -0.00000
   79    0.00002
   80    0.00001
   81   -0.00011
   82    0.00007
   83   -0.00000
   84    0.00006
   85   -0.00001
   86   -0.00001
   87   -0.00000
   88    0.00000
   89    0.00002
   90   -0.00001
   91    0.00004
   92   -0.00004
   93    0.00015
   94    0.00001
   95    0.00003
   96    0.00000
   97   -0.00005
   98    0.00018
   99   -0.00008
  100   -0.00003
  101   -0.00050
  102   -0.00069
  103    0.00055
  104   -0.00042
  105   -0.00021
  106    0.00021
  107    0.00013
  108    0.00006
  109    0.00000
  110   -0.00001
  111   -0.00003
  112   -0.00000
  113   -0.00000
  114    0.00002
  115    0.00000
  116   -0.00004
  117   -0.00022
  118   -0.00001
  119   -0.00000
  120    0.00012
  121   -0.00000
  122   -0.00000
  123   -0.00001
  124    0.00000
  125   -0.00001
  126   -0.00004
  127    0.00001
  128    0.00020
  129    0.00105
  130   -0.00009
  131    0.00005
  132   -0.00016
  133   -0.00028
  134    0.00017
  135    0.00012
  136    0.00001
  137   -0.00001
  138   -0.00073
  139    0.00001
  140   -0.00002
  141    0.00004
  142    0.00016
  143   -0.00016
  144    0.00004
  145   -0.03930
  146   -0.00035
  147   -0.00038
  148    0.00006
  149    0.00004
  150   -0.00045
  151    0.00011
  152   -0.00022
  153   -0.00010
  154   -0.99787
  155   -0.00595
  156    0.00383
  157    0.00048
  158   -0.00054
  159    0.00027
  160   -0.00060
  161    0.00026
  162   -0.00010
  163   -0.00318
  164   -0.00006
  165   -0.00049
  166   -0.00005
  167    0.00005
  168    0.00017
  169    0.00007
  170    0.00016
  171    0.00107
  172    0.00001
  173    0.00003
  174   -0.00057
  175    0.00000
  176    0.00000
  177    0.00002
  178   -0.00001
  179   -0.00008
  180    0.00030
 Ene=   -15.7325
 Spin= Alpha
 Occup= 2.0
    1   -0.00000
    2    0.00012
    3    0.00054
    4    0.00019
    5    0.00015
    6   -0.00010
    7    0.00165
    8    0.00076
    9    0.00000
   10   -0.00001
   11   -0.00019
   12   -0.00014
   13   -0.00015
   14   -0.00018
   15    0.00006
   16   -0.00128
   17   -0.00062
   18   -0.00176
   19    0.00002
   20    0.00029
   21   -0.00044
   22    0.00022
   23    0.00010
   24   -0.00014
   25   -0.00061
   26   -0.00009
   27    0.00013
   28    0.00002
   29    0.00001
   30   -0.00001
   31   -0.00009
   32   -0.00008
   33    0.00007
   34    0.00018
   35    0.00015
   36    0.00048
   37   -0.00001
   38   -0.00009
   39   -0.00010
   40   -0.00007
   41   -0.00004
   42    0.00007
   43    0.00022
   44   -0.00049
   45    0.00001
   46   -0.00002
   47   -0.00005
   48    0.00020
   49   -0.00003
   50   -0.00000
   51    0.00001
   52    0.00015
   53   -0.00006
   54   -0.00008
   55    0.00000
   56    0.00000
   57    0.00240
   58   -0.00003
   59   -0.00007
   60   -0.00028
   61    0.00008
   62    0.00025
   63    0.00078
   64    0.00003
   65    0.00004
   66   -0.00289
   67   -0.00001
   68    0.00005
   69    0.00013
   70   -0.00034
   71   -0.00013
   72    0.00035
   73   -0.00002
   74    0.00001
   75    0.00021
   76    0.00002
   77    0.00000
   78    0.00000
   79   -0.00012
   80    0.00001
   81    0.00015
   82    0.00001
   83    0.00002
   84   -0.00008
   85    0.00001
   86   -0.00000
   87   -0.00000
   88    0.00001
   89    0.00002
   90    0.00011
   91   -0.00003
   92   -0.00007
   93    0.00024
   94    0.00001
   95   -0.00005
   96    0.00002
   97   -0.00001
   98    0.00012
   99    0.00030
  100    0.00010
  101    0.00062
  102    0.00096
  103   -0.00011
  104    0.00011
  105   -0.00030
  106   -0.00048
  107    0.00092
  108   -0.00024
  109    0.00002
  110    0.00004
  111    0.00001
  112   -0.00000
  113    0.00002
  114   -0.00002
  115    0.00008
  116   -0.00012
  117    0.00084
  118   -0.00000
  119    0.00002
  120   -0.00029
  121    0.00000
  122   -0.00000
  123    0.00000
  124   -0.00006
  125    0.00008
  126    0.00032
  127    0.00003
  128    0.00014
  129   -0.00240
  130    0.00002
  131    0.00004
  132    0.00010
  133    0.00044
  134   -0.00096
  135   -0.00047
  136   -0.00004
  137   -0.00022
  138    0.00128
  139    0.00007
  140   -0.00004
  141    0.00002
  142    0.00013
  143    0.00023
  144   -0.00015
  145    0.99852
  146    0.00106
  147    0.00959
  148    0.00043
  149   -0.00061
  150    0.00284
  151   -0.00053
  152    0.00057
  153    0.00176
  154   -0.03946
  155    0.00002
  156    0.00102
  157   -0.00003
  158   -0.00003
  159   -0.00020
  160    0.00020
  161    0.00082
  162    0.01234
  163   -0.00011
  164    0.00048
  165   -0.00698
  166    0.00004
  167    0.00006
  168    0.00009
  169   -0.00038
  170   -0.00058
  171    0.00668
  172   -0.00003
  173    0.00014
  174   -0.00245
  175    0.00004
  176    0.00001
  177    0.00003
  178    0.00005
  179   -0.00007
  180    0.00074
 Ene=   -15.7083
 Spin= Alpha
 Occup= 2.0
    1   -0.00005
    2   -0.00031
    3    0.00126
    4    0.00003
    5   -0.00005
    6   -0.00018
    7   -0.00320
    8    0.00056
    9   -0.00055
   10    0.00003
   11   -0.00001
   12   -0.00323
   13   -0.00001
   14    0.00007
   15   -0.00024
   16    0.00530
   17   -0.00110
   18    0.00074
   19    0.00001
   20    0.00005
   21   -0.00039
   22    0.00001
   23   -0.00002
   24    0.00006
   25    0.00013
   26    0.00079
   27    0.00032
   28    0.00001
   29    0.00010
   30    0.00283
   31    0.00001
   32    0.00002
   33   -0.00002
   34   -0.00044
   35   -0.00258
   36   -0.00080
   37   -0.00001
   38   -0.00006
   39    0.00017
   40   -0.00002
   41    0.00003
   42    0.00002
   43    0.00009
   44    0.00046
   45    0.00028
   46   -0.00000
   47    0.00001
   48    0.00005
   49   -0.00000
   50   -0.00000
   51    0.00000
   52    0.00002
   53    0.00002
   54    0.00001
   55   -0.00000
   56   -0.00001
   57    0.00023
   58    0.00000
   59    0.00000
   60   -0.00000
   61    0.00039
   62    0.00052
   63    0.00022
   64    0.00000
   65    0.00003
   66    0.00027
   67   -0.00001
   68   -0.00004
   69    0.00001
   70   -0.00061
   71   -0.00050
   72    0.00053
   73    0.00000
   74    0.00002
   75   -0.00011
   76   -0.00001
   77   -0.00000
   78   -0.00000
   79   -0.00008
   80    0.00017
   81    0.00009
   82   -0.00001
   83    0.00000
   84   -0.00002
   85    0.00000
   86   -0.00001
   87   -0.00000
   88   -0.00006
   89    0.00011
   90    0.00008
   91   -0.00771
   92   -0.00010
   93   -0.00066
   94   -0.00008
   95    0.00007
   96   -0.00024
   97    0.00019
   98   -0.00016
   99   -0.00013
  100   -0.00000
  101   -0.00002
  102   -0.00001
  103    0.00003
  104    0.00004
  105   -0.00003
  106   -0.00026
  107   -0.00005
  108   -0.00033
  109   -0.99876
  110   -0.00430
  111   -0.00000
  112    0.00096
  113   -0.00116
  114    0.00053
  115   -0.00105
  116    0.00122
  117   -0.00107
  118   -0.01145
  119   -0.00025
  120    0.00024
  121   -0.00005
  122    0.00003
  123    0.00042
  124    0.00020
  125   -0.00019
  126   -0.00045
  127    0.00000
  128    0.00002
  129   -0.00126
  130    0.00007
  131    0.00010
  132    0.00002
  133    0.00038
  134    0.00023
  135   -0.00047
  136   -0.00000
  137   -0.00003
  138    0.00055
  139   -0.00000
  140    0.00003
  141    0.00000
  142   -0.00017
  143    0.00011
  144    0.00002
  145    0.00002
  146   -0.00001